# vtk DataFile Version 3.4
V0
ASCII
DATASET STRUCTURED_POINTS
DIMENSIONS 3 3 1
ORIGIN     0.0 0.0 0.0
SPACING    1.0 1.0 1.0
POINT_DATA 9
SCALARS V0 float 1
LOOKUP_TABLE default
200
255
60
100
10
255
250
100
0
